
     Program PWSCF v.7.2 starts on 19Jun2024 at 15:45:29 

     This program is part of the open-source Quantum ESPRESSO suite
     for quantum simulation of materials; please cite
         "P. Giannozzi et al., J. Phys.:Condens. Matter 21 395502 (2009);
         "P. Giannozzi et al., J. Phys.:Condens. Matter 29 465901 (2017);
         "P. Giannozzi et al., J. Chem. Phys. 152 154105 (2020);
          URL http://www.quantum-espresso.org", 
     in publications or presentations arising from this work. More details at
     http://www.quantum-espresso.org/quote

     Parallel version (MPI), running on     1 processors

     MPI processes distributed on     1 nodes
     4485 MiB available memory on the printing compute node when the environment starts
 
     Waiting for input...
     Reading input from standard input

     Current dimensions of program PWSCF are:
     Max number of different atomic species (ntypx) = 10
     Max number of k-points (npk) =  40000
     Max angular momentum in pseudopotentials (lmaxx) =  4
 
     Subspace diagonalization in iterative solution of the eigenvalue problem:
     a serial algorithm will be used

 
     G-vector sticks info
     --------------------
     sticks:   dense  smooth     PW     G-vecs:    dense   smooth      PW
     Sum         151     151     55                 1139     1139     259
 
     Using Slab Decomposition
 


     bravais-lattice index     =            2
     lattice parameter (alat)  =      10.2000  a.u.
     unit-cell volume          =     265.3020 (a.u.)^3
     number of atoms/cell      =            2
     number of atomic types    =            1
     number of electrons       =         8.00
     number of Kohn-Sham states=            4
     kinetic-energy cutoff     =      10.0000  Ry
     charge density cutoff     =      40.0000  Ry
     scf convergence threshold =      1.0E-08
     mixing beta               =       0.7000
     number of iterations used =            8  plain     mixing
     Exchange-correlation= PBESOL
                           (   1   4  10   8   0   0   0)

     celldm(1)=  10.200000  celldm(2)=   0.000000  celldm(3)=   0.000000
     celldm(4)=   0.000000  celldm(5)=   0.000000  celldm(6)=   0.000000

     crystal axes: (cart. coord. in units of alat)
               a(1) = (  -0.500000   0.000000   0.500000 )  
               a(2) = (   0.000000   0.500000   0.500000 )  
               a(3) = (  -0.500000   0.500000   0.000000 )  

     reciprocal axes: (cart. coord. in units 2 pi/alat)
               b(1) = ( -1.000000 -1.000000  1.000000 )  
               b(2) = (  1.000000  1.000000  1.000000 )  
               b(3) = ( -1.000000  1.000000 -1.000000 )  


     PseudoPot. # 1 for Si read from file:
     ./Si.pbesol-n-rrkjus_psl.1.0.0.UPF
     MD5 check sum: c4212819de858c94c3a1644338846ac9
     Pseudo is Ultrasoft + core correction, Zval =  4.0
     Generated using "atomic" code by A. Dal Corso  v.6.0 svn rev. 13079
     Using radial grid of 1141 points,  6 beta functions with: 
                l(1) =   0
                l(2) =   0
                l(3) =   1
                l(4) =   1
                l(5) =   2
                l(6) =   2
     Q(r) pseudized with 0 coefficients 


     atomic species   valence    mass     pseudopotential
        Si             4.00    28.08600     Si( 1.00)

     48 Sym. Ops., with inversion, found (24 have fractional translation)



   Cartesian axes

     site n.     atom                  positions (alat units)
         1           Si  tau(   1) = (   0.0000000   0.0000000   0.0000000  )
         2           Si  tau(   2) = (   0.2500000   0.2500000   0.2500000  )

     number of k points=     8
                       cart. coord. in units 2pi/alat
        k(    1) = (   0.0000000   0.0000000   0.0000000), wk =   0.0312500
        k(    2) = (  -0.2500000   0.2500000  -0.2500000), wk =   0.2500000
        k(    3) = (   0.5000000  -0.5000000   0.5000000), wk =   0.1250000
        k(    4) = (   0.0000000   0.5000000   0.0000000), wk =   0.1875000
        k(    5) = (   0.7500000  -0.2500000   0.7500000), wk =   0.7500000
        k(    6) = (   0.5000000   0.0000000   0.5000000), wk =   0.3750000
        k(    7) = (   0.0000000  -1.0000000   0.0000000), wk =   0.0937500
        k(    8) = (  -0.5000000  -1.0000000   0.0000000), wk =   0.1875000

     Dense  grid:     1139 G-vectors     FFT dimensions: (  16,  16,  16)

     Estimated max dynamical RAM per process >       4.91 MB

     Check: negative core charge=   -0.000222

     Initial potential from superposition of free atoms

     starting charge       7.9989, renormalised to       8.0000
     Starting wfcs are    8 randomized atomic wfcs

     total cpu time spent up to now is        0.3 secs

     Self-consistent Calculation

     iteration #  1     ecut=    10.00 Ry     beta= 0.70
     Davidson diagonalization with overlap
     ethr =  1.00E-02,  avg # of iterations =  2.0

     Threshold (ethr) on eigenvalues was too large:
     Diagonalizing with lowered threshold

     Davidson diagonalization with overlap
     ethr =  6.98E-04,  avg # of iterations =  1.1

     total cpu time spent up to now is        0.4 secs

     total energy              =     -22.65462412 Ry
     estimated scf accuracy    <       0.05952745 Ry

     iteration #  2     ecut=    10.00 Ry     beta= 0.70
     Davidson diagonalization with overlap
     ethr =  7.44E-04,  avg # of iterations =  1.0

     total cpu time spent up to now is        0.4 secs

     total energy              =     -22.65636761 Ry
     estimated scf accuracy    <       0.00264461 Ry

     iteration #  3     ecut=    10.00 Ry     beta= 0.70
     Davidson diagonalization with overlap
     ethr =  3.31E-05,  avg # of iterations =  2.2

     total cpu time spent up to now is        0.4 secs

     total energy              =     -22.65687415 Ry
     estimated scf accuracy    <       0.00007947 Ry

     iteration #  4     ecut=    10.00 Ry     beta= 0.70
     Davidson diagonalization with overlap
     ethr =  9.93E-07,  avg # of iterations =  4.0

     total cpu time spent up to now is        0.5 secs

     total energy              =     -22.65692516 Ry
     estimated scf accuracy    <       0.00000292 Ry

     iteration #  5     ecut=    10.00 Ry     beta= 0.70
     Davidson diagonalization with overlap
     ethr =  3.65E-08,  avg # of iterations =  4.5

     total cpu time spent up to now is        0.5 secs

     total energy              =     -22.65692685 Ry
     estimated scf accuracy    <       0.00000048 Ry

     iteration #  6     ecut=    10.00 Ry     beta= 0.70
     Davidson diagonalization with overlap
     ethr =  6.01E-09,  avg # of iterations =  2.5

     total cpu time spent up to now is        0.5 secs

     total energy              =     -22.65692693 Ry
     estimated scf accuracy    <       0.00000002 Ry

     iteration #  7     ecut=    10.00 Ry     beta= 0.70
     Davidson diagonalization with overlap
     ethr =  1.96E-10,  avg # of iterations =  3.9

     total cpu time spent up to now is        0.6 secs

     End of self-consistent calculation

          k = 0.0000 0.0000 0.0000 (   137 PWs)   bands (ev):

    -5.7027   6.4717   6.4717   6.4717

          k =-0.2500 0.2500-0.2500 (   150 PWs)   bands (ev):

    -4.8903   2.4404   5.6589   5.6589

          k = 0.5000-0.5000 0.5000 (   138 PWs)   bands (ev):

    -3.3119  -0.6788   5.2031   5.2031

          k = 0.0000 0.5000 0.0000 (   149 PWs)   bands (ev):

    -4.6026   2.9144   4.4815   4.4815

          k = 0.7500-0.2500 0.7500 (   143 PWs)   bands (ev):

    -2.9238  -0.0337   2.7909   4.1560

          k = 0.5000 0.0000 0.5000 (   138 PWs)   bands (ev):

    -3.6143   0.8983   2.5554   5.0715

          k = 0.0000-1.0000 0.0000 (   150 PWs)   bands (ev):

    -1.4766  -1.4766   3.4814   3.4814

          k =-0.5000-1.0000 0.0000 (   144 PWs)   bands (ev):

    -1.2972  -1.2972   2.4394   2.4394

     highest occupied level (ev):     6.4717

!    total energy              =     -22.65692693 Ry
     estimated scf accuracy    <          8.6E-11 Ry

     The total energy is the sum of the following terms:
     one-electron contribution =       5.33633009 Ry
     hartree contribution      =       1.09130909 Ry
     xc contribution           =     -12.18480754 Ry
     ewald contribution        =     -16.89975858 Ry

     convergence has been achieved in   7 iterations

     Forces acting on atoms (cartesian axes, Ry/au):

     atom    1 type  1   force =     0.00000000    0.00000000   -0.00000000
     atom    2 type  1   force =     0.00000000    0.00000000    0.00000000
     The non-local contrib.  to forces
     atom    1 type  1   force =    -0.00000000   -0.00000000    0.00000000
     atom    2 type  1   force =     0.00000000    0.00000000    0.00000000
     The ionic contribution  to forces
     atom    1 type  1   force =    -0.00000000   -0.00000000   -0.00000000
     atom    2 type  1   force =     0.00000000    0.00000000    0.00000000
     The local contribution  to forces
     atom    1 type  1   force =    -0.00000000    0.00000000   -0.00000000
     atom    2 type  1   force =     0.00000000   -0.00000000    0.00000000
     The core correction contribution to forces
     atom    1 type  1   force =     0.00000000    0.00000000   -0.00000000
     atom    2 type  1   force =    -0.00000000    0.00000000   -0.00000000
     The Hubbard contrib.    to forces
     atom    1 type  1   force =     0.00000000    0.00000000    0.00000000
     atom    2 type  1   force =     0.00000000    0.00000000    0.00000000
     The SCF correction term to forces
     atom    1 type  1   force =     0.00000000    0.00000000    0.00000000
     atom    2 type  1   force =    -0.00000000   -0.00000000   -0.00000000

     Total force =     0.000000     Total SCF correction =     0.000000


     Computing stress (Cartesian axis) and pressure

          total   stress  (Ry/bohr**3)                   (kbar)     P=       69.69
   0.00047372   0.00000000   0.00000000           69.69        0.00        0.00
   0.00000000   0.00047372  -0.00000000            0.00       69.69       -0.00
   0.00000000   0.00000000   0.00047372            0.00        0.00       69.69


     Writing all to output data dir ./silicon.save/
 
     init_run     :      0.15s CPU      0.16s WALL (       1 calls)
     electrons    :      0.22s CPU      0.23s WALL (       1 calls)
     forces       :      0.01s CPU      0.01s WALL (       1 calls)
     stress       :      0.03s CPU      0.03s WALL (       1 calls)

     Called by init_run:
     wfcinit      :      0.01s CPU      0.01s WALL (       1 calls)
     potinit      :      0.00s CPU      0.00s WALL (       1 calls)
     hinit0       :      0.14s CPU      0.14s WALL (       1 calls)

     Called by electrons:
     c_bands      :      0.14s CPU      0.15s WALL (       8 calls)
     sum_band     :      0.04s CPU      0.05s WALL (       8 calls)
     v_of_rho     :      0.02s CPU      0.02s WALL (       8 calls)
     newd         :      0.02s CPU      0.02s WALL (       8 calls)
     mix_rho      :      0.00s CPU      0.00s WALL (       8 calls)

     Called by c_bands:
     init_us_2    :      0.01s CPU      0.01s WALL (     152 calls)
     init_us_2:cp :      0.01s CPU      0.01s WALL (     152 calls)
     cegterg      :      0.10s CPU      0.11s WALL (      64 calls)

     Called by *egterg:
     cdiaghg      :      0.01s CPU      0.01s WALL (     226 calls)
     h_psi        :      0.09s CPU      0.09s WALL (     242 calls)
     s_psi        :      0.00s CPU      0.00s WALL (     242 calls)
     g_psi        :      0.00s CPU      0.00s WALL (     170 calls)

     Called by h_psi:
     h_psi:calbec :      0.00s CPU      0.00s WALL (     242 calls)
     vloc_psi     :      0.08s CPU      0.08s WALL (     242 calls)
     add_vuspsi   :      0.00s CPU      0.00s WALL (     242 calls)

     General routines
     calbec       :      0.00s CPU      0.00s WALL (     346 calls)
     fft          :      0.01s CPU      0.01s WALL (     114 calls)
     ffts         :      0.00s CPU      0.00s WALL (       8 calls)
     fftw         :      0.08s CPU      0.08s WALL (    1910 calls)
 
     Parallel routines
 
     PWSCF        :      0.58s CPU      0.62s WALL

 
   This run was terminated on:  15:45:30  19Jun2024            

=------------------------------------------------------------------------------=
   JOB DONE.
=------------------------------------------------------------------------------=
